
Host: LAPTOP-PQTAVVBL

Timers On : Tue May 16 14:41:58 2023
Timers Off: Tue May 16 14:46:44 2023

Wall Time:      286.18 seconds

                                                       Time (seconds)
Module                                       User      System        Wall        Calls

--------------------------------------------------------------------------------------

**************************************************************************************
